<?xml version="1.0" encoding="UTF-8"?>

<configuration xmlns:xsi="http://www.w3.org/2001/XMLSchema-instance" xsi:noNamespaceSchemaLocation="http://sumo.dlr.de/xsd/sumoConfiguration.xsd">

    <input>
        <net-file value="test.net.xml"/>
        <route-files value="output.rou.xml"/>
        <additional-files value="vtypes.add.xml"/>
    </input>

    <output>
        <summary-output value="test_summary.xml"/>
    </output>

    <time>
        <begin value="21600"/>
    </time>

    <processing>
        <scale value="0.3"/>
    </processing>

    <report>
        <verbose value="true"/>
       <no-step-log value="true"/>
    </report>

</configuration>


