<?xml version="1.0" encoding="UTF-8"?>

<!-- generated on 17/09/2017 21:13:19 by SUMO gui Version 0.30.0
<?xml version="1.0" encoding="UTF-8"?>

<configuration xmlns:xsi="http://www.w3.org/2001/XMLSchema-instance" xsi:noNamespaceSchemaLocation="http://sumo.dlr.de/xsd/sumoConfiguration.xsd">

    <input>
        <net-file value="test.net.xml"/>
        <route-files value="output.rou.xml"/>
        <additional-files value="vtypes.add.xml"/>
    </input>

    <output>
        <summary-output value="true"/>
    </output>

    <time>
        <begin value="21600"/>
    </time>

    <processing>
        <scale value="0.3"/>
    </processing>

    <report>
        <verbose value="true"/>
        <log value="cologne.log"/>
    </report>

</configuration>
-->

<summary xmlns:xsi="http://www.w3.org/2001/XMLSchema-instance" xsi:noNamespaceSchemaLocation="http://sumo.dlr.de/xsd/summary_file.xsd">
    <step time="21600.00" loaded="5" inserted="1" running="1" waiting="0" ended="3" meanWaitingTime="0.00" meanTravelTime="0.00" duration="107147805"/>
    <step time="21601.00" loaded="1185" inserted="4" running="4" waiting="0" ended="829" meanWaitingTime="0.00" meanTravelTime="0.00" duration="107147805"/>
    <step time="21602.00" loaded="1185" inserted="4" running="4" waiting="0" ended="829" meanWaitingTime="0.00" meanTravelTime="0.00" duration="107147942"/>
    <step time="21603.00" loaded="1185" inserted="6" running="6" waiting="0" ended="829" meanWaitingTime="0.00" meanTravelTime="0.00" duration="107147942"/>
    <step time="21604.00" loaded="1185" inserted="7" running="7" waiting="0" ended="829" meanWaitingTime="0.00" meanTravelTime="0.00" duration="107147942"/>
    <step time="21605.00" loaded="1185" inserted="9" running="9" waiting="0" ended="829" meanWaitingTime="0.00" meanTravelTime="0.00" duration="107147942"/>
    <step time="21606.00" loaded="1185" inserted="11" running="11" waiting="0" ended="829" meanWaitingTime="0.00" meanTravelTime="0.00" duration="107147942"/>
    <step time="21607.00" loaded="1185" inserted="13" running="13" waiting="0" ended="829" meanWaitingTime="0.00" meanTravelTime="0.00" duration="107147942"/>
    <step time="21608.00" loaded="1185" inserted="15" running="15" waiting="0" ended="829" meanWaitingTime="0.00" meanTravelTime="0.00" duration="107147942"/>
    <step time="21609.00" loaded="1185" inserted="16" running="16" waiting="0" ended="829" meanWaitingTime="0.00" meanTravelTime="0.00" duration="107147942"/>
    <step time="21610.00" loaded="1185" inserted="18" running="18" waiting="0" ended="829" meanWaitingTime="0.00" meanTravelTime="0.00" duration="107147943"/>
    <step time="21611.00" loaded="1185" inserted="19" running="19" waiting="0" ended="829" meanWaitingTime="0.00" meanTravelTime="0.00" duration="107147943"/>
    <step time="21612.00" loaded="1185" inserted="21" running="21" waiting="0" ended="829" meanWaitingTime="0.00" meanTravelTime="0.00" duration="107147943"/>
    <step time="21613.00" loaded="1185" inserted="23" running="23" waiting="0" ended="829" meanWaitingTime="0.00" meanTravelTime="0.00" duration="107147943"/>
    <step time="21614.00" loaded="1185" inserted="24" running="24" waiting="0" ended="829" meanWaitingTime="0.00" meanTravelTime="0.00" duration="107147943"/>
    <step time="21615.00" loaded="1185" inserted="25" running="25" waiting="0" ended="829" meanWaitingTime="0.00" meanTravelTime="0.00" duration="107147943"/>
    <step time="21616.00" loaded="1185" inserted="27" running="27" waiting="0" ended="829" meanWaitingTime="0.00" meanTravelTime="0.00" duration="107147944"/>
    <step time="21617.00" loaded="1185" inserted="29" running="29" waiting="0" ended="829" meanWaitingTime="0.00" meanTravelTime="0.00" duration="107147944"/>
    <step time="21618.00" loaded="1185" inserted="32" running="32" waiting="0" ended="829" meanWaitingTime="0.00" meanTravelTime="0.00" duration="107147944"/>
    <step time="21619.00" loaded="1185" inserted="33" running="33" waiting="0" ended="829" meanWaitingTime="0.00" meanTravelTime="0.00" duration="107147945"/>
    <step time="21620.00" loaded="1185" inserted="35" running="35" waiting="0" ended="829" meanWaitingTime="0.00" meanTravelTime="0.00" duration="107147945"/>
    <step time="21621.00" loaded="1185" inserted="36" running="36" waiting="0" ended="829" meanWaitingTime="0.00" meanTravelTime="0.00" duration="107147945"/>
    <step time="21622.00" loaded="1185" inserted="37" running="37" waiting="0" ended="829" meanWaitingTime="0.00" meanTravelTime="0.00" duration="107147945"/>
    <step time="21623.00" loaded="1185" inserted="39" running="39" waiting="0" ended="829" meanWaitingTime="0.00" meanTravelTime="0.00" duration="107147946"/>
    <step time="21624.00" loaded="1185" inserted="40" running="40" waiting="0" ended="829" meanWaitingTime="0.00" meanTravelTime="0.00" duration="107147946"/>
    <step time="21625.00" loaded="1185" inserted="42" running="42" waiting="0" ended="829" meanWaitingTime="0.00" meanTravelTime="0.00" duration="107147947"/>
    <step time="21626.00" loaded="1185" inserted="43" running="43" waiting="0" ended="829" meanWaitingTime="0.00" meanTravelTime="0.00" duration="107147947"/>
    <step time="21627.00" loaded="1185" inserted="45" running="45" waiting="0" ended="829" meanWaitingTime="0.00" meanTravelTime="0.00" duration="107147948"/>
    <step time="21628.00" loaded="1185" inserted="46" running="46" waiting="0" ended="829" meanWaitingTime="0.00" meanTravelTime="0.00" duration="107147948"/>
    <step time="21629.00" loaded="1185" inserted="47" running="47" waiting="0" ended="829" meanWaitingTime="0.00" meanTravelTime="0.00" duration="107147949"/>
    <step time="21630.00" loaded="1185" inserted="49" running="49" waiting="0" ended="829" meanWaitingTime="0.00" meanTravelTime="0.00" duration="107147949"/>
    <step time="21631.00" loaded="1185" inserted="50" running="50" waiting="0" ended="829" meanWaitingTime="0.00" meanTravelTime="0.00" duration="107147950"/>
    <step time="21632.00" loaded="1185" inserted="51" running="51" waiting="0" ended="829" meanWaitingTime="0.00" meanTravelTime="0.00" duration="107147951"/>
    <step time="21633.00" loaded="1185" inserted="52" running="52" waiting="0" ended="829" meanWaitingTime="0.00" meanTravelTime="0.00" duration="107147951"/>
    <step time="21634.00" loaded="1185" inserted="53" running="53" waiting="0" ended="829" meanWaitingTime="0.00" meanTravelTime="0.00" duration="107147952"/>
    <step time="21635.00" loaded="1185" inserted="55" running="55" waiting="0" ended="829" meanWaitingTime="0.00" meanTravelTime="0.00" duration="107147952"/>
    <step time="21636.00" loaded="1185" inserted="56" running="56" waiting="0" ended="829" meanWaitingTime="0.00" meanTravelTime="0.00" duration="107147953"/>
    <step time="21637.00" loaded="1185" inserted="58" running="58" waiting="0" ended="829" meanWaitingTime="0.00" meanTravelTime="0.00" duration="107147953"/>
    <step time="21638.00" loaded="1185" inserted="60" running="60" waiting="0" ended="829" meanWaitingTime="0.00" meanTravelTime="0.00" duration="107147954"/>
    <step time="21639.00" loaded="1185" inserted="61" running="61" waiting="0" ended="829" meanWaitingTime="0.00" meanTravelTime="0.00" duration="107147954"/>
    <step time="21640.00" loaded="1185" inserted="63" running="63" waiting="0" ended="829" meanWaitingTime="0.00" meanTravelTime="0.00" duration="107147955"/>
    <step time="21641.00" loaded="1185" inserted="63" running="63" waiting="0" ended="829" meanWaitingTime="0.00" meanTravelTime="0.00" duration="107147955"/>
    <step time="21642.00" loaded="1185" inserted="64" running="64" waiting="0" ended="829" meanWaitingTime="0.00" meanTravelTime="0.00" duration="107147956"/>
    <step time="21643.00" loaded="1185" inserted="64" running="64" waiting="0" ended="829" meanWaitingTime="0.00" meanTravelTime="0.00" duration="107147957"/>
    <step time="21644.00" loaded="1185" inserted="67" running="67" waiting="0" ended="829" meanWaitingTime="0.00" meanTravelTime="0.00" duration="107147957"/>
    <step time="21645.00" loaded="1185" inserted="68" running="68" waiting="0" ended="829" meanWaitingTime="0.00" meanTravelTime="0.00" duration="107147958"/>
    <step time="21646.00" loaded="1185" inserted="70" running="70" waiting="0" ended="829" meanWaitingTime="0.00" meanTravelTime="0.00" duration="107147959"/>
    <step time="21647.00" loaded="1185" inserted="70" running="70" waiting="0" ended="829" meanWaitingTime="0.00" meanTravelTime="0.00" duration="107147960"/>
    <step time="21648.00" loaded="1185" inserted="71" running="71" waiting="0" ended="829" meanWaitingTime="0.00" meanTravelTime="0.00" duration="107147960"/>
    <step time="21649.00" loaded="1185" inserted="73" running="73" waiting="0" ended="829" meanWaitingTime="0.00" meanTravelTime="0.00" duration="107147961"/>
    <step time="21650.00" loaded="1185" inserted="76" running="76" waiting="0" ended="829" meanWaitingTime="0.00" meanTravelTime="0.00" duration="107147962"/>
    <step time="21651.00" loaded="1185" inserted="78" running="78" waiting="0" ended="829" meanWaitingTime="0.00" meanTravelTime="0.00" duration="107147963"/>
    <step time="21652.00" loaded="1185" inserted="78" running="78" waiting="0" ended="829" meanWaitingTime="0.00" meanTravelTime="0.00" duration="107147964"/>
    <step time="21653.00" loaded="1185" inserted="80" running="80" waiting="0" ended="829" meanWaitingTime="0.00" meanTravelTime="0.00" duration="107147966"/>
    <step time="21654.00" loaded="1185" inserted="81" running="81" waiting="0" ended="829" meanWaitingTime="0.00" meanTravelTime="0.00" duration="107147967"/>
    <step time="21655.00" loaded="1185" inserted="83" running="83" waiting="0" ended="829" meanWaitingTime="0.00" meanTravelTime="0.00" duration="107147967"/>
    <step time="21656.00" loaded="1185" inserted="85" running="85" waiting="0" ended="829" meanWaitingTime="0.00" meanTravelTime="0.00" duration="107147968"/>
    <step time="21657.00" loaded="1185" inserted="88" running="88" waiting="0" ended="829" meanWaitingTime="0.00" meanTravelTime="0.00" duration="107147969"/>
    <step time="21658.00" loaded="1185" inserted="91" running="91" waiting="0" ended="829" meanWaitingTime="0.00" meanTravelTime="0.00" duration="107147970"/>
    <step time="21659.00" loaded="1185" inserted="92" running="92" waiting="0" ended="829" meanWaitingTime="0.00" meanTravelTime="0.00" duration="107147971"/>
    <step time="21660.00" loaded="1185" inserted="94" running="94" waiting="0" ended="829" meanWaitingTime="0.00" meanTravelTime="0.00" duration="107147972"/>
    <step time="21661.00" loaded="1185" inserted="96" running="96" waiting="0" ended="829" meanWaitingTime="0.00" meanTravelTime="0.00" duration="107147973"/>
    <step time="21662.00" loaded="1185" inserted="99" running="99" waiting="0" ended="829" meanWaitingTime="0.00" meanTravelTime="0.00" duration="107147974"/>
    <step time="21663.00" loaded="1185" inserted="100" running="100" waiting="0" ended="829" meanWaitingTime="0.00" meanTravelTime="0.00" duration="107147975"/>
    <step time="21664.00" loaded="1185" inserted="102" running="102" waiting="0" ended="829" meanWaitingTime="0.00" meanTravelTime="0.00" duration="107147976"/>
    <step time="21665.00" loaded="1185" inserted="105" running="105" waiting="0" ended="829" meanWaitingTime="0.00" meanTravelTime="0.00" duration="107147978"/>
    <step time="21666.00" loaded="1185" inserted="106" running="106" waiting="0" ended="829" meanWaitingTime="0.00" meanTravelTime="0.00" duration="107147979"/>
    <step time="21667.00" loaded="1185" inserted="108" running="108" waiting="1" ended="829" meanWaitingTime="0.00" meanTravelTime="0.00" duration="107147980"/>
    <step time="21668.00" loaded="1185" inserted="108" running="108" waiting="1" ended="829" meanWaitingTime="0.00" meanTravelTime="0.00" duration="107147982"/>
    <step time="21669.00" loaded="1185" inserted="111" running="111" waiting="1" ended="829" meanWaitingTime="0.00" meanTravelTime="0.00" duration="107147983"/>
    <step time="21670.00" loaded="1185" inserted="114" running="114" waiting="0" ended="829" meanWaitingTime="0.03" meanTravelTime="0.00" duration="107147985"/>
    <step time="21671.00" loaded="1185" inserted="115" running="115" waiting="0" ended="829" meanWaitingTime="0.03" meanTravelTime="0.00" duration="107147986"/>
    <step time="21672.00" loaded="1185" inserted="116" running="116" waiting="0" ended="829" meanWaitingTime="0.03" meanTravelTime="0.00" duration="107147988"/>
    <step time="21673.00" loaded="1185" inserted="117" running="117" waiting="0" ended="829" meanWaitingTime="0.03" meanTravelTime="0.00" duration="107147989"/>
    <step time="21674.00" loaded="1185" inserted="119" running="119" waiting="0" ended="829" meanWaitingTime="0.03" meanTravelTime="0.00" duration="107147990"/>
    <step time="21675.00" loaded="1185" inserted="123" running="123" waiting="0" ended="829" meanWaitingTime="0.02" meanTravelTime="0.00" duration="107147991"/>
    <step time="21676.00" loaded="1185" inserted="123" running="123" waiting="0" ended="829" meanWaitingTime="0.02" meanTravelTime="0.00" duration="107147993"/>
    <step time="21677.00" loaded="1185" inserted="126" running="126" waiting="0" ended="829" meanWaitingTime="0.02" meanTravelTime="0.00" duration="107147995"/>
    <step time="21678.00" loaded="1185" inserted="127" running="127" waiting="0" ended="829" meanWaitingTime="0.02" meanTravelTime="0.00" duration="107147997"/>
    <step time="21679.00" loaded="1185" inserted="131" running="131" waiting="0" ended="829" meanWaitingTime="0.02" meanTravelTime="0.00" duration="107148000"/>
    <step time="21680.00" loaded="1185" inserted="132" running="132" waiting="0" ended="829" meanWaitingTime="0.02" meanTravelTime="0.00" duration="107148001"/>
    <step time="21681.00" loaded="1185" inserted="133" running="133" waiting="0" ended="829" meanWaitingTime="0.02" meanTravelTime="0.00" duration="107148003"/>
    <step time="21682.00" loaded="1185" inserted="135" running="135" waiting="0" ended="829" meanWaitingTime="0.02" meanTravelTime="0.00" duration="107148005"/>
    <step time="21683.00" loaded="1185" inserted="135" running="135" waiting="1" ended="829" meanWaitingTime="0.02" meanTravelTime="0.00" duration="107148007"/>
    <step time="21684.00" loaded="1185" inserted="137" running="137" waiting="1" ended="829" meanWaitingTime="0.02" meanTravelTime="0.00" duration="107148009"/>
    <step time="21685.00" loaded="1185" inserted="140" running="140" waiting="0" ended="829" meanWaitingTime="0.04" meanTravelTime="0.00" duration="107148011"/>
    <step time="21686.00" loaded="1185" inserted="140" running="140" waiting="0" ended="829" meanWaitingTime="0.04" meanTravelTime="0.00" duration="107148013"/>
    <step time="21687.00" loaded="1185" inserted="141" running="141" waiting="0" ended="829" meanWaitingTime="0.04" meanTravelTime="0.00" duration="107148017"/>
    <step time="21688.00" loaded="1185" inserted="142" running="142" waiting="0" ended="829" meanWaitingTime="0.04" meanTravelTime="0.00" duration="107148019"/>
    <step time="21689.00" loaded="1185" inserted="143" running="143" waiting="0" ended="829" meanWaitingTime="0.03" meanTravelTime="0.00" duration="107148020"/>
    <step time="21690.00" loaded="1185" inserted="145" running="145" waiting="0" ended="829" meanWaitingTime="0.03" meanTravelTime="0.00" duration="107148023"/>
    <step time="21691.00" loaded="1185" inserted="145" running="145" waiting="0" ended="829" meanWaitingTime="0.03" meanTravelTime="0.00" duration="107148025"/>
    <step time="21692.00" loaded="1185" inserted="147" running="147" waiting="0" ended="829" meanWaitingTime="0.03" meanTravelTime="0.00" duration="107148027"/>
    <step time="21693.00" loaded="1185" inserted="149" running="149" waiting="0" ended="829" meanWaitingTime="0.03" meanTravelTime="0.00" duration="107148029"/>
    <step time="21694.00" loaded="1185" inserted="152" running="152" waiting="0" ended="829" meanWaitingTime="0.03" meanTravelTime="0.00" duration="107148031"/>
    <step time="21695.00" loaded="1185" inserted="153" running="153" waiting="0" ended="829" meanWaitingTime="0.03" meanTravelTime="0.00" duration="107148033"/>
    <step time="21696.00" loaded="1185" inserted="155" running="155" waiting="0" ended="829" meanWaitingTime="0.03" meanTravelTime="0.00" duration="107148035"/>
    <step time="21697.00" loaded="1185" inserted="155" running="155" waiting="0" ended="829" meanWaitingTime="0.03" meanTravelTime="0.00" duration="107148037"/>
    <step time="21698.00" loaded="1185" inserted="157" running="157" waiting="0" ended="829" meanWaitingTime="0.03" meanTravelTime="0.00" duration="107148039"/>
    <step time="21699.00" loaded="1185" inserted="160" running="160" waiting="0" ended="829" meanWaitingTime="0.03" meanTravelTime="0.00" duration="107148041"/>
    <step time="21700.00" loaded="1185" inserted="162" running="162" waiting="0" ended="829" meanWaitingTime="0.03" meanTravelTime="0.00" duration="107148043"/>
    <step time="21701.00" loaded="1185" inserted="163" running="163" waiting="0" ended="829" meanWaitingTime="0.03" meanTravelTime="0.00" duration="107148046"/>
    <step time="21702.00" loaded="1185" inserted="164" running="164" waiting="0" ended="829" meanWaitingTime="0.03" meanTravelTime="0.00" duration="107148049"/>
    <step time="21703.00" loaded="1185" inserted="165" running="165" waiting="0" ended="829" meanWaitingTime="0.03" meanTravelTime="0.00" duration="107148051"/>
    <step time="21704.00" loaded="1185" inserted="168" running="168" waiting="0" ended="829" meanWaitingTime="0.03" meanTravelTime="0.00" duration="107148053"/>
    <step time="21705.00" loaded="1185" inserted="172" running="172" waiting="0" ended="829" meanWaitingTime="0.03" meanTravelTime="0.00" duration="107148056"/>
    <step time="21706.00" loaded="1185" inserted="172" running="172" waiting="0" ended="829" meanWaitingTime="0.03" meanTravelTime="0.00" duration="107148058"/>
    <step time="21707.00" loaded="1185" inserted="175" running="175" waiting="0" ended="829" meanWaitingTime="0.03" meanTravelTime="0.00" duration="107148061"/>
    <step time="21708.00" loaded="1185" inserted="176" running="176" waiting="0" ended="829" meanWaitingTime="0.03" meanTravelTime="0.00" duration="107148063"/>
    <step time="21709.00" loaded="1185" inserted="178" running="178" waiting="0" ended="829" meanWaitingTime="0.03" meanTravelTime="0.00" duration="107148065"/>
    <step time="21710.00" loaded="1185" inserted="179" running="179" waiting="0" ended="829" meanWaitingTime="0.03" meanTravelTime="0.00" duration="107148068"/>
    <step time="21711.00" loaded="1185" inserted="180" running="180" waiting="0" ended="829" meanWaitingTime="0.03" meanTravelTime="0.00" duration="107148070"/>
    <step time="21712.00" loaded="1185" inserted="183" running="183" waiting="0" ended="829" meanWaitingTime="0.03" meanTravelTime="0.00" duration="107148073"/>
    <step time="21713.00" loaded="1185" inserted="185" running="185" waiting="0" ended="829" meanWaitingTime="0.03" meanTravelTime="0.00" duration="107148075"/>
    <step time="21714.00" loaded="1185" inserted="186" running="186" waiting="0" ended="829" meanWaitingTime="0.03" meanTravelTime="0.00" duration="107148078"/>
    <step time="21715.00" loaded="1185" inserted="188" running="188" waiting="0" ended="829" meanWaitingTime="0.03" meanTravelTime="0.00" duration="107148081"/>
    <step time="21716.00" loaded="1185" inserted="190" running="190" waiting="0" ended="829" meanWaitingTime="0.03" meanTravelTime="0.00" duration="107148083"/>
    <step time="21717.00" loaded="1185" inserted="192" running="192" waiting="0" ended="829" meanWaitingTime="0.03" meanTravelTime="0.00" duration="107148086"/>
    <step time="21718.00" loaded="1185" inserted="193" running="193" waiting="0" ended="829" meanWaitingTime="0.03" meanTravelTime="0.00" duration="107148088"/>
    <step time="21719.00" loaded="1185" inserted="195" running="195" waiting="1" ended="829" meanWaitingTime="0.03" meanTravelTime="0.00" duration="107148091"/>
    <step time="21720.00" loaded="1185" inserted="195" running="195" waiting="1" ended="829" meanWaitingTime="0.03" meanTravelTime="0.00" duration="107148093"/>
    <step time="21721.00" loaded="1185" inserted="199" running="199" waiting="0" ended="829" meanWaitingTime="0.04" meanTravelTime="0.00" duration="107148095"/>
    <step time="21722.00" loaded="1185" inserted="200" running="200" waiting="0" ended="829" meanWaitingTime="0.04" meanTravelTime="0.00" duration="107148098"/>
    <step time="21723.00" loaded="1185" inserted="201" running="201" waiting="0" ended="829" meanWaitingTime="0.03" meanTravelTime="0.00" duration="107148101"/>
    <step time="21724.00" loaded="1185" inserted="202" running="202" waiting="0" ended="829" meanWaitingTime="0.03" meanTravelTime="0.00" duration="107148104"/>
    <step time="21725.00" loaded="1185" inserted="205" running="205" waiting="0" ended="829" meanWaitingTime="0.03" meanTravelTime="0.00" duration="107148106"/>
    <step time="21726.00" loaded="1185" inserted="207" running="207" waiting="0" ended="829" meanWaitingTime="0.03" meanTravelTime="0.00" duration="107148110"/>
    <step time="21727.00" loaded="1185" inserted="208" running="208" waiting="0" ended="829" meanWaitingTime="0.03" meanTravelTime="0.00" duration="107148114"/>
    <step time="21728.00" loaded="1185" inserted="209" running="209" waiting="0" ended="829" meanWaitingTime="0.03" meanTravelTime="0.00" duration="107148118"/>
    <step time="21729.00" loaded="1185" inserted="210" running="210" waiting="0" ended="829" meanWaitingTime="0.03" meanTravelTime="0.00" duration="107148120"/>
    <step time="21730.00" loaded="1185" inserted="214" running="213" waiting="0" ended="830" meanWaitingTime="0.03" meanTravelTime="0.13" duration="107148123"/>
    <step time="21731.00" loaded="1185" inserted="214" running="213" waiting="1" ended="830" meanWaitingTime="0.03" meanTravelTime="0.13" duration="107148125"/>
    <step time="21732.00" loaded="1185" inserted="216" running="215" waiting="1" ended="830" meanWaitingTime="0.03" meanTravelTime="0.13" duration="107148128"/>
    <step time="21733.00" loaded="1185" inserted="218" running="217" waiting="1" ended="830" meanWaitingTime="0.03" meanTravelTime="0.13" duration="107148131"/>
    <step time="21734.00" loaded="1185" inserted="220" running="219" waiting="1" ended="830" meanWaitingTime="0.03" meanTravelTime="0.13" duration="107148134"/>
    <step time="21735.00" loaded="1185" inserted="222" running="221" waiting="1" ended="830" meanWaitingTime="0.03" meanTravelTime="0.13" duration="107148137"/>
    <step time="21736.00" loaded="1185" inserted="224" running="223" waiting="1" ended="830" meanWaitingTime="0.03" meanTravelTime="0.13" duration="107148141"/>
    <step time="21737.00" loaded="1185" inserted="226" running="225" waiting="0" ended="830" meanWaitingTime="0.06" meanTravelTime="0.13" duration="107148143"/>
    <step time="21738.00" loaded="1185" inserted="228" running="227" waiting="0" ended="830" meanWaitingTime="0.06" meanTravelTime="0.13" duration="107148146"/>
    <step time="21739.00" loaded="1185" inserted="229" running="228" waiting="0" ended="830" meanWaitingTime="0.06" meanTravelTime="0.13" duration="107148149"/>
    <step time="21740.00" loaded="1185" inserted="231" running="228" waiting="0" ended="832" meanWaitingTime="0.06" meanTravelTime="0.27" duration="107148153"/>
    <step time="21741.00" loaded="1185" inserted="234" running="231" waiting="0" ended="832" meanWaitingTime="0.06" meanTravelTime="0.27" duration="107148156"/>
    <step time="21742.00" loaded="1185" inserted="234" running="231" waiting="0" ended="832" meanWaitingTime="0.06" meanTravelTime="0.27" duration="107148159"/>
    <step time="21743.00" loaded="1185" inserted="236" running="232" waiting="0" ended="833" meanWaitingTime="0.06" meanTravelTime="0.36" duration="107148162"/>
    <step time="21744.00" loaded="1185" inserted="238" running="234" waiting="0" ended="833" meanWaitingTime="0.05" meanTravelTime="0.36" duration="107148165"/>
    <step time="21745.00" loaded="1185" inserted="240" running="236" waiting="0" ended="833" meanWaitingTime="0.05" meanTravelTime="0.36" duration="107148168"/>
    <step time="21746.00" loaded="1185" inserted="243" running="239" waiting="0" ended="833" meanWaitingTime="0.05" meanTravelTime="0.36" duration="107148171"/>
    <step time="21747.00" loaded="1185" inserted="244" running="240" waiting="0" ended="833" meanWaitingTime="0.05" meanTravelTime="0.36" duration="107148174"/>
    <step time="21748.00" loaded="1185" inserted="246" running="242" waiting="0" ended="833" meanWaitingTime="0.05" meanTravelTime="0.36" duration="107148176"/>
    <step time="21749.00" loaded="1185" inserted="249" running="244" waiting="0" ended="834" meanWaitingTime="0.05" meanTravelTime="0.48" duration="107148179"/>
    <step time="21750.00" loaded="1185" inserted="250" running="245" waiting="0" ended="834" meanWaitingTime="0.05" meanTravelTime="0.48" duration="107148182"/>
    <step time="21751.00" loaded="1185" inserted="253" running="248" waiting="0" ended="834" meanWaitingTime="0.05" meanTravelTime="0.48" duration="107148186"/>
    <step time="21752.00" loaded="1185" inserted="256" running="251" waiting="0" ended="834" meanWaitingTime="0.05" meanTravelTime="0.48" duration="107148189"/>
    <step time="21753.00" loaded="1185" inserted="259" running="254" waiting="0" ended="834" meanWaitingTime="0.05" meanTravelTime="0.48" duration="107148192"/>
    <step time="21754.00" loaded="1185" inserted="261" running="256" waiting="0" ended="834" meanWaitingTime="0.05" meanTravelTime="0.48" duration="107148194"/>
    <step time="21755.00" loaded="1185" inserted="262" running="257" waiting="0" ended="834" meanWaitingTime="0.05" meanTravelTime="0.48" duration="107148198"/>
    <step time="21756.00" loaded="1185" inserted="265" running="260" waiting="0" ended="834" meanWaitingTime="0.05" meanTravelTime="0.48" duration="107148201"/>
    <step time="21757.00" loaded="1185" inserted="267" running="262" waiting="0" ended="834" meanWaitingTime="0.05" meanTravelTime="0.48" duration="107148205"/>
    <step time="21758.00" loaded="1185" inserted="269" running="264" waiting="0" ended="834" meanWaitingTime="0.05" meanTravelTime="0.48" duration="107148208"/>
    <step time="21759.00" loaded="1185" inserted="272" running="267" waiting="0" ended="834" meanWaitingTime="0.05" meanTravelTime="0.48" duration="107148211"/>
    <step time="21760.00" loaded="1185" inserted="274" running="269" waiting="0" ended="834" meanWaitingTime="0.05" meanTravelTime="0.48" duration="107148214"/>
    <step time="21761.00" loaded="1185" inserted="276" running="271" waiting="0" ended="834" meanWaitingTime="0.05" meanTravelTime="0.48" duration="107148219"/>
    <step time="21762.00" loaded="1185" inserted="279" running="274" waiting="0" ended="834" meanWaitingTime="0.05" meanTravelTime="0.48" duration="107148222"/>
    <step time="21763.00" loaded="1185" inserted="281" running="276" waiting="0" ended="834" meanWaitingTime="0.05" meanTravelTime="0.48" duration="107148225"/>
    <step time="21764.00" loaded="1185" inserted="282" running="277" waiting="0" ended="834" meanWaitingTime="0.05" meanTravelTime="0.48" duration="107148229"/>
    <step time="21765.00" loaded="1185" inserted="284" running="279" waiting="0" ended="834" meanWaitingTime="0.05" meanTravelTime="0.48" duration="107148233"/>
    <step time="21766.00" loaded="1185" inserted="286" running="281" waiting="0" ended="834" meanWaitingTime="0.05" meanTravelTime="0.48" duration="107148236"/>
    <step time="21767.00" loaded="1185" inserted="289" running="284" waiting="0" ended="834" meanWaitingTime="0.04" meanTravelTime="0.48" duration="107148240"/>
    <step time="21768.00" loaded="1185" inserted="290" running="285" waiting="0" ended="834" meanWaitingTime="0.04" meanTravelTime="0.48" duration="107148243"/>
    <step time="21769.00" loaded="1185" inserted="291" running="286" waiting="0" ended="834" meanWaitingTime="0.04" meanTravelTime="0.48" duration="107148246"/>
    <step time="21770.00" loaded="1185" inserted="292" running="287" waiting="0" ended="834" meanWaitingTime="0.04" meanTravelTime="0.48" duration="107148250"/>
    <step time="21771.00" loaded="1185" inserted="295" running="290" waiting="0" ended="834" meanWaitingTime="0.04" meanTravelTime="0.48" duration="107148254"/>
    <step time="21772.00" loaded="1185" inserted="299" running="294" waiting="0" ended="834" meanWaitingTime="0.04" meanTravelTime="0.48" duration="107148258"/>
    <step time="21773.00" loaded="1185" inserted="300" running="295" waiting="0" ended="834" meanWaitingTime="0.04" meanTravelTime="0.48" duration="107148261"/>
    <step time="21774.00" loaded="1185" inserted="302" running="297" waiting="0" ended="834" meanWaitingTime="0.04" meanTravelTime="0.48" duration="107148264"/>
    <step time="21775.00" loaded="1185" inserted="304" running="299" waiting="0" ended="834" meanWaitingTime="0.04" meanTravelTime="0.48" duration="107148269"/>
    <step time="21776.00" loaded="1185" inserted="305" running="300" waiting="0" ended="834" meanWaitingTime="0.04" meanTravelTime="0.48" duration="107148273"/>
    <step time="21777.00" loaded="1185" inserted="307" running="302" waiting="0" ended="834" meanWaitingTime="0.04" meanTravelTime="0.48" duration="107148277"/>
    <step time="21778.00" loaded="1185" inserted="310" running="305" waiting="0" ended="834" meanWaitingTime="0.04" meanTravelTime="0.48" duration="107148281"/>
    <step time="21779.00" loaded="1185" inserted="312" running="307" waiting="0" ended="834" meanWaitingTime="0.04" meanTravelTime="0.48" duration="107148285"/>
    <step time="21780.00" loaded="1185" inserted="314" running="309" waiting="0" ended="834" meanWaitingTime="0.04" meanTravelTime="0.48" duration="107148289"/>